import pygame
import sys
import time
import os
import random
import math

# By Kyle Yen - Period 4

# Forces static position of screen
os.environ['SDL_VIDEO_CENTERED'] = '1'

# Constant values
pix_sz = 32
font_sz = pix_sz * 2 / 3
win_w = 16 * pix_sz
win_h = 22 * pix_sz

mar_1 = pix_sz * 0.5
mar_2 = pix_sz * 1

fps = 60

# Colors
WHITE = (255, 255, 255)
LIGHT_GRAY = (192, 192, 192)
GRAY = (128, 128, 128)
BLACK = (0, 0, 0)
RED = (255, 0, 0)
YELLOW = (216, 216, 0)
LIGHT_GREEN = (128, 255, 128)
GREEN = (0, 255, 0)
LIGHT_BLUE = (128, 128, 255)
BLUE = (64, 64, 255)
LIGHT_BROWN = (255, 255, 0)
BROWN = (128, 128, 0)

pygame.init()


class Textbox:
    def __init__(self, run, x, y, w, h, align):
        self.run = run
   
        self.color = BLUE
        self.image = pygame.Surface((w, h))
        self.image.convert()
        self.image.fill(self.color)
        self.rect = self.image.get_rect()
        self.rect.x = x
        self.rect.y = y
   
        self.align = align
   
        self.text_list = []
        # Assigns coordinates of textbox based on alignment
        for line in range(0, 8):
            if self.align == "left":
                text = Text(font_sz, "", "left", x + mar_1, y + mar_1 + font_sz * line, WHITE)
            else:
                text = Text(font_sz, "", "center", self.rect.centerx, self.rect.y + mar_1 + font_sz * line, WHITE)
            self.text_list += [text]
   
    def prompt(self, new_text_list):
        # Produces a prompt that must be exited out of by pressing space
        self.update(new_text_list)
        while True:
            for event in pygame.event.get():
                # Allows the red button to function
                if event.type == pygame.QUIT:
                    pygame.quit()
                    sys.exit()
                elif event.type == pygame.KEYDOWN:
                    if event.key == pygame.K_ESCAPE:
                        sys.exit()
                    # Space = return
                    if event.key == pygame.K_SPACE:
                        return 0
   
            self.textbox_blit()
   
    def message(self, new_text_list):
        # Produces a message that closes after a certain amount of time
        length = 2
   
        self.update(new_text_list)
        self.textbox_blit()
   
        time.sleep(length)
   
    def update(self, new_text_list):
        # Updates text in box
        for line in range(0, len(new_text_list) - 1):
            self.text_list[line].update_text(new_text_list[line])
            if self.text_list[line].align == "center":
                self.text_list[line].rect.centerx = self.rect.centerx
   
    def textbox_blit(self):
        # Renders all images of textbox
        self.run.screen.blit(self.image, self.rect)
        for line in self.text_list:
            self.run.screen.blit(line.image, line.rect)
        # Writes to main surface
        pygame.display.flip()


class Text:
    def __init__(self, size, text, align, x, y, color):
        self.font = pygame.font.SysFont("Britannic Bold", int(size))
        self.text = text
        self.color = color
        self.image = self.font.render(self.text, 1, color)
        self.rect = self.image.get_rect()
        self.align = align
        if self.align == "left":
            self.rect.x = x
            self.rect.y = y
        elif self.align == "center":
            self.rect.centerx = x
            self.rect.y = y
   
    def update_text(self, new_text):
        # Updates text
        self.text = new_text
        self.image = self.font.render(self.text, 1, self.color)
   
    def update_color(self, new_color):
        self.color = new_color
        self.image = self.font.render(self.text, 1, self.color)


class Pointer:
    def __init__(self, color):
        self.color = color
        self.image = pygame.Surface((pix_sz * 0.25, pix_sz * 0.25)).convert()
        self.rect = self.image.get_rect()
   
    def update(self, new_x, new_y):
        # Updates position
        self.rect.centerx = new_x
        self.rect.centery = new_y


class Game:
   def __init__(self, frames):
       self.fps = frames
       self.screen = pygame.display.set_mode((win_w, win_h), pygame.SRCALPHA)
       self.beginning = self.running = self.ending = True
       self.clock = pygame.time.Clock()
       self.clock.tick(self.fps)

       self.title = Text(win_h / 9, "Final Fantasy", "center", win_w / 2, win_h * 0.4, WHITE)
       self.subtitle = Text(win_h / 12, "--Click Here--", "center", win_w / 2, win_h * 0.6, WHITE)

       self.end_title_win = Text(win_h / 6, "You Win!", "center", win_w / 2, win_h / 2 - 192, WHITE)
       self.end_title_lose = Text(win_h / 6, "You Lost", "center", win_w / 2, win_h / 2 - 192, WHITE)
       self.end_subtitle = Text(win_h / 12, "--Click to Close--", "center", win_w / 2, win_h / 2 + 64, WHITE)

       self.textbox_prompt = Textbox(self, 0, 0, win_w, pix_sz * 4, "center")

       self.textbox_top = Textbox(self, 0, 0, win_w, pix_sz * 4, "left")
       self.textbox_middle = Textbox(self, 0, pix_sz * 4, win_w, pix_sz * 13, "left")

       textbox_0 = Textbox(self, win_w * 0, win_h - pix_sz * 6, win_w * 0.16, pix_sz * 6, "left")
       textbox_1 = Textbox(self, win_w * 0.16, win_h - pix_sz * 6, win_w * 0.24, pix_sz * 6, "left")
       textbox_2 = Textbox(self, win_w * 0.40, win_h - pix_sz * 6, win_w * 0.24, pix_sz * 6, "left")
       self.textbox_health = Textbox(self, win_w * 0.64, win_h - pix_sz * 6, win_w * 0.36, pix_sz * 6, "left")

       self.textbox_combat_list = [textbox_0, textbox_1, textbox_2, self.textbox_health]
       self.textbox_menu_list = [textbox_0, textbox_1, textbox_2, self.textbox_health,
                                 self.textbox_prompt, self.textbox_middle]

       self.pointer = Pointer(WHITE)
       self.pointer_2 = Pointer(WHITE)

   def create_plat(self, x, y, name, location):
       p = Platform(x, y, name, location)

       # Platforms for town
       if location == "town":
           if name == (" " or "T" or "D" or "P" or "W"):
               p = Platform(x, y, name, location)
           # Loot
           elif name == "L":
               print("Loot: " + str(x / pix_sz) + " " + str(y / pix_sz))

       # Platforms for world
       elif location == "world":
           if name == (" " or "G" or "F" or "R" or "D" or "P"):
               p = Platform(x, y, name, location)
           # Town
           elif name == "T":
               print("Town: " + str(x / pix_sz) + " " + str(y / pix_sz))
           # Castle
           elif name == "C":
               print("Castle: " + str(x / pix_sz) + " " + str(y / pix_sz))
           # Loot
           elif name == "L":
               print("Loot: " + str(x / pix_sz) + " " + str(y / pix_sz))

       # Platforms for castle
       elif location == "castle":
           if name == " " or "W":
               p = Platform(x, y, name, location)
           # Loot
           elif name == "L":
               print("Loot: " + str(x / pix_sz) + " " + str(y / pix_sz))
           # Exit
           elif name == "E":
               print("Exit: " + str(x / pix_sz) + " " + str(y / pix_sz))

       return p

   def text_blit(self, obj_list):
       # Renders each obj given, if they have a surface and rect
       for obj in obj_list:
           if len(obj) > 1:
               # If an argument is given, make the object blink
               if obj[1] == 1:
                   if (pygame.time.get_ticks() % 1000) < 500:
                       self.screen.blit(obj[0].image, obj[0].rect)
           else:
               self.screen.blit(obj[0].image, obj[0].rect)

   def determ_enemies(self, player, enemy, enemy_list, plat_group_w, encounter_type):
       # Depending on the location of the player, enemies are assigned to enemy_list
       if player.location == "world":
           p = pygame.sprite.spritecollide(player, plat_group_w, False)
           number = random.randrange(1, 6)
           print("Random number: " + str(number))

           # Grass enemies
           if p[0].variant == "grass" or p[0].variant == "path":
               if number == 1:
                   enemy_list = [GoblinEnemy(enemy, 1),
                                 GoblinEnemy(enemy, 2),
                                 GoblinEnemy(enemy, 3)]
               elif number == 2:
                   enemy_list = [WolfEnemy(enemy, 1),
                                 WolfEnemy(enemy, 2),
                                 WolfEnemy(enemy, 3)]
               elif number == 3:
                   enemy_list = [GoblinEnemy(enemy, 1),
                                 GoblinEnemy(enemy, 2),
                                 GoblinEnemy(enemy, 3)]
               elif number == 4:
                   enemy_list = [GoblinEnemy(enemy, 1),
                                 OgreEnemy(enemy, 2),
                                 GoblinEnemy(enemy, 3)]
               elif number == 5:
                   enemy_list = [GoblinEnemy(enemy, 1),
                                 GoblinEnemy(enemy, 2),
                                 GoblinEnemy(enemy, 3)]
           elif p[0].variant == "forest":
                   if number == 1:
                       enemy_list = [GoblinEnemy(enemy, 1),
                                     GoblinEnemy(enemy, 2),
                                     GoblinEnemy(enemy, 3)]
                   elif number == 2:
                       enemy_list = [WolfEnemy(enemy, 1),
                                     WolfEnemy(enemy, 2),
                                     WolfEnemy(enemy, 3)]
                   elif number == 3:
                       enemy_list = [WolfEnemy(enemy, 1),
                                     WolfEnemy(enemy, 2),
                                     GoblinEnemy(enemy, 3)]
                   elif number == 4:
                       enemy_list = [GoblinEnemy(enemy, 1),
                                     OgreEnemy(enemy, 2),
                                     GoblinEnemy(enemy, 3)]
                   elif number == 5:
                       enemy_list = [GoblinEnemy(enemy, 1),
                                     GoblinEnemy(enemy, 2),
                                     GoblinEnemy(enemy, 3)]
           elif p[0].variant == "dirt":
                   if number == 1:
                       enemy_list = [
                           GhoulEnemy(enemy, 1),
                           GhoulEnemy(enemy, 2),
                           GhoulEnemy(enemy, 3)]
                   elif number == 2:
                       enemy_list = [SkeletonEnemy(enemy, 1),
                                     SkeletonEnemy(enemy, 2),
                                     SkeletonEnemy(enemy, 3)]
                   elif number == 3:
                       enemy_list = [OgreEnemy(enemy, 1),
                                     OgreEnemy(enemy, 2),
                                     GoblinEnemy(enemy, 3)]
                   elif number == 4:
                       enemy_list = [WolfEnemy(enemy, 1),
                                     WolfEnemy(enemy, 2),
                                     WolfEnemy(enemy, 3)]
                   elif number == 5:
                       enemy_list = [GoblinEnemy(enemy, 1),
                                     GoblinEnemy(enemy, 2),
                                     GoblinEnemy(enemy, 3)]

       elif player.location == "castle":
                   # If in final-boss room, loads encounter for final boss
                   if encounter_type == "boss":
                       enemy_list = [
                           GoblinEnemy(enemy, 1),
                           BossEnemy(enemy, 2),
                           GoblinEnemy(enemy, 3)]
                   # If chest is opened, force encounter
                   elif encounter_type == "forced":
                       enemy_list = [
                           SkeletonEnemy(enemy, 1),
                           SkeletonEnemy(enemy, 2),
                           SkeletonEnemy(enemy, 3)]
                   else:
                       number = random.randrange(1, 4)
                       print("Random number: " + str(number))

                       if number == 1:
                           enemy_list = [
                               GhoulEnemy(enemy, 1),
                               GhoulEnemy(enemy, 2),
                               GhoulEnemy(enemy, 3)]
                       elif number == 2:
                           enemy_list = [
                               SkeletonEnemy(enemy, 1),
                               SkeletonEnemy(enemy, 2),
                               SkeletonEnemy(enemy, 3)]
                       elif number == 3:
                           enemy_list = [
                               GargoyleEnemy(enemy, 1),
                               GargoyleEnemy(enemy, 2),
                               GargoyleEnemy(enemy, 3)]

       return enemy_list

   def combat_loop(self, player, hero_list, enemy, old_enemy_list, plat_group_w, encounter_type):
       # Runs a loop of combat where player selects actions, and combat continues until one side falls

       # Selections are Attack, Defend, Spells, Items, and Run
       enemy_list = self.determ_enemies(player, enemy, old_enemy_list, plat_group_w, encounter_type)
       print("Enemies: " + enemy_list[0].name + enemy_list[1].name + enemy_list[2].name)

       result = False
       encounter = True
       while encounter:
           # For all entities that are not downed, allows turn to be taken
           active_entities = []
           for c in hero_list:
               c.hero.check_health(c, hero_list)
               if not c.downed:
                   # If character is not downed, allows selection of character's actions
                   print("Selection: " + str(c.name))
                   active_entities += [c]

                   hero_name_list = []
                   for ch in hero_list:
                       hero_name_list += [ch.name]

                   enemy_obj_list = []
                   enemy_name_list = []
                   for e in enemy_list:
                       if not e.downed:
                           enemy_obj_list += [e]
                           enemy_name_list += [e.name]

                   spell_obj_list = []
                   spell_name_list = []
                   for s in c.spell_list:
                       if s == "None":
                           spell_obj_list += ["None"]
                           spell_name_list += ["None"]
                       else:
                           if s.targets == "ally":
                               spell_obj_list += [[s, hero_list]]
                               spell_name_list += [[s.name, hero_name_list]]
                           elif s.targets == "enemy":
                               spell_obj_list += [[s, enemy_list]]
                               spell_name_list += [[s.name, enemy_name_list]]

                   item_obj_list = []
                   for i in player.item_list:
                       item_obj_list += [[i, hero_name_list]]

                   g_obj = [c.name, [["Attack", enemy_obj_list],
                                        ["Defend"],
                                        ["Spells", spell_obj_list],
                                        ["Items", item_obj_list],
                                        ["Run"]]]
                   g_name = [c.name, [["Attack", enemy_name_list],
                                         ["Defend"],
                                         ["Spells", spell_name_list],
                                         ["Items", [["H. Pot.       " + str(player.item_inven[0]), hero_name_list],
                                                    ["P. Down  " + str(player.item_inven[1]), hero_name_list],
                                                    ["E. Pot. " + str(player.item_inven[2]), hero_name_list]]],
                                         ["Run"]]]

                   output = self.selection(player, hero_list, enemy_list, "combat", g_obj, g_name, c, 0, [0, 0, 0, 0])
                   c.update_selection(output)

                   if output[0][0] == 1:
                       c.defend_bonus = 75
                       c.defend_dura = 1
               else:
                   print(c.name + " is downed.")
           for e in enemy_list:
               if not e.downed:
                   active_entities += [e]

           turn_order = random.sample(active_entities, len(active_entities))
           for entity in turn_order:
               empty_text_list = ["", "", "", "", "", "", "", ""]
               for box in range(0, 3):
                   self.textbox_combat_list[box].update(empty_text_list)

               # Characters and enemies take their turn in a random order
               if isinstance(entity, CharacterHero):
                   entity.shift(pix_sz * (-2), hero_list, enemy_list)
                   response = entity.hero.attack(player, entity, hero_list, enemy_list)
                   entity.shift(pix_sz * 2, hero_list, enemy_list)
                   if response == "run success":
                       for c in hero_list:
                           c.shift(pix_sz * 8)
                       self.textbox_prompt.prompt(["The party successfully ran away.", "", "", "", "", "", "", ""])
                       return "Ran away"
               else:
                   entity.enemy.shift(pix_sz * 2, hero_list, enemy_list, entity)
                   entity.enemy.attack(entity, hero_list)
                   entity.enemy.shift(pix_sz * (-2), hero_list, enemy_list, entity)
               result = self.determ_encounter_end(hero_list, enemy_list)
               if result != "false":
                   encounter = False
                   break

           for c in hero_list:
               c.hero.check_buffs(c)

       # Checks if result of encounter is a win or loss, gives rewards if a win
       if result == "win":
           print("Encounter has been won")
           self.combat_rewards(hero_list, enemy_list, player)
           return "win"
       else:
           print("Encounter has been lost")
           print("Game Over")
           return "lose"

   def determ_encounter_end(self, hero_list, enemy_list):
       # Determines if encounter is over, and returns which side wins
       # If all characters are downed, return "lose"
       if hero_list[0].downed and hero_list[1].downed and hero_list[2].downed and hero_list[3].downed:
           return "lose"
       # If all enemies are downed, return "win"
       elif enemy_list[0].downed and enemy_list[1].downed and enemy_list[2].downed:
           return "win"
       # If encounter is not over, return false
       else:
           return "false"

   def combat_rewards(self, hero_list, enemy_list, player):
       # Handles exp and gil gained, also handles character level-ups
       print("Distributing combat rewards.")

       gained_gil = 0
       gained_exp = 0
       for e in enemy_list:
           gained_gil += random.randrange(int(e.gil_drop * 0.7), int(e.gil_drop * 1.3))
           gained_exp += random.randrange(int(e.exp_drop * 0.7), int(e.exp_drop * 1.3))
       print("Obtained " + str(gained_gil) + " gil.")
       player.gil += gained_gil
       print("Gil: " + str(player.gil))
       self.textbox_prompt.prompt(["Obtained " + str(gained_gil) + " gil.", "", "", "", "", "", "", ""])
       self.textbox_prompt.prompt(["Obtained " + str(gained_exp) + " exp.", "", "", "", "", "", "", ""])

       # Adds exp to all characters that are not downed
       for c in hero_list:
           if not c.downed:
               c.exp += gained_exp
           print(c.name + " exp: " + str(c.exp))

           # If character's exp exceeds or meets required amount, character levels up
           if c.exp >= c.exp_needed:
               c.level += 1
               print(c.name + " is now level " + str(c.level) + "!")
               self.textbox_prompt.prompt([c.name + " is now level " + str(c.level) + "!", "", "", "", "", "", "", ""])
               c.multiplier = c.multiplier * 1.1
               c.exp -= c.exp_needed
               c.exp_needed += 50
               c.hero.update_stats(c)

       # Updates equip and/or items if they are dropped

       # Randomly distributes equipment
       chance = random.random() * 100
       if 0 <= chance < 10:
           drop = random.sample(player.equip_list, 1)[0]
           print("Obtained " + drop.name + ".")
           self.textbox_prompt.prompt(["Obtained " + drop.name + ".", "", "", "", "", "", "", ""])
           player.equip_inventory += drop
       elif 10 <= chance <= 30:
           drop = random.sample(player.item_list, 1)[0]
           print("Obtained " + drop.name)
           self.textbox_prompt.prompt(["Obtained " + drop.name + ".", "", "", "", "", "", "", ""])
           if drop.name == "Potion":
               player.item_inven[0] += 1
           if drop.name == "Phoenix Down":
               player.item_inven[1] += 1
           if drop.name == "Energy Potion":
               player.item_inven[2] += 1

       print("Exiting combat.")

   def menu_loop(self, player, hero_list):
       # Pause Menu, out of combat
       # Selections are Stats, Equipment, Spells, Items, and Tips
       print("Selection: Pause Menu")

       hero_name_list = []
       spell_obj_list = []
       spell_name_list = []
       for c in hero_list:
           hero_name_list += [c.name]
           for spell in c.spell_list:
               if spell.out_of_combat:
                   spell_obj_list += [[spell, hero_list]]
                   spell_name_list += [[spell.name, hero_name_list]]

       equip_obj_list = []
       equip_name_list = []
       for eq in player.equip_list:
           equip_obj_list += [eq]
           equip_name_list += [eq.name]

       item_obj_list = []
       for i in player.item_list:
           item_obj_list += [[i, hero_name_list]]

       g_obj = ["Select Action:", [["Stats", hero_list],
                                   ["Equip", equip_obj_list],
                                   ["Spells", spell_obj_list],
                                   ["Items", item_obj_list],
                                   ["Tips"]]]
       g_name = ["Select Action:", [["Stats", hero_name_list],
                                    ["Equip", equip_name_list],
                                    ["Spells", spell_name_list],
                                    ["Items", ["Potion        " + str(player.item_inven[0]),
                                               "Phoenix Down  " + str(player.item_inven[1]),
                                               "Energy Potion " + str(player.item_inven[2])]],
                                    ["Tips"]]]

       # Player remains in menu until pressing "b"
       while True:
           turn_output = self.selection(player, hero_list, None, "pause", g_obj, g_name, None, 0, [0, 0, 0, 0])
           if turn_output == "false":
               return 0
           else:
               pos_list = turn_output[0]

   def selection(self, player, hero_list, enemy_list, variant, g_obj, g_name, source, iteration, pos_list):
       # Command for navigating menu
       pos = 0

       new_text_list = []

       for line in range(0, 8):
           if line == 0:
               new_text_list += [g_name[0] + ":"]
           elif len(g_name[1]) >= line:
               if isinstance(g_name[1][line - 1], list):
                   new_text_list += [g_name[1][line - 1][0]]
               else: # isinstance(g_name[1][line - 1], basestring):
                   new_text_list += [g_name[1][line - 1]]
           else:
               new_text_list += [""]
       print(new_text_list)

       empty_text_list = ["", "", "", "", "", "", "", ""]

       # Sets initial text and cursor positions
       self.textbox_combat_list[iteration].update(new_text_list)
       for box in range(iteration + 1, 3):
           self.textbox_combat_list[box].update(empty_text_list)
       self.pointer.update(self.textbox_combat_list[iteration].text_list[pos + 1].rect.x - pix_sz * .5,
                           self.textbox_combat_list[iteration].text_list[pos + 1].rect.centery)

       # Initial render
       self.screen.fill(WHITE)
       if variant == "combat":
           for textbox in self.textbox_combat_list:
               textbox.textbox_blit()
           for c in hero_list:
               self.screen.blit(c.image, c.rect)
           for e in enemy_list:
               if not e.downed:
                    self.screen.blit(e.image, e.rect)
       # Blits all textboxes to fill screen with menu
       else:
           for textbox in self.textbox_menu_list:
               textbox.textbox_blit()
       self.screen.blit(self.pointer.image, self.pointer.rect)

       # Writes to main surface
       pygame.display.flip()

       # Grid is a list of lists, denoting positions on the UI
       # Checks inputs, updates UI based on responses
       print(g_name[0])
       print(g_name[1][pos][0])
       while True:
           for event in pygame.event.get():
               # Allows the red button to function
               if event.type == pygame.QUIT:
                   pygame.quit()
                   sys.exit()
               elif event.type == pygame.KEYDOWN:
                   if event.key == pygame.K_ESCAPE:
                       sys.exit()
                   if event.key == pygame.K_w:
                       pos -= 1
                       if pos < 0:
                           pos = len(g_obj[1]) - 1
                       print(g_name[1][pos][0])
                       self.pointer.update(self.textbox_combat_list[iteration].text_list[pos + 1].rect.x - pix_sz * .5,
                                           self.textbox_combat_list[iteration].text_list[pos + 1].rect.centery)
                   if event.key == pygame.K_s:
                       pos += 1
                       if pos > len(g_obj[1]) - 1:
                           pos = 0
                       print(g_name[1][pos][0])
                       self.pointer.update(self.textbox_combat_list[iteration].text_list[pos + 1].rect.x - pix_sz * .5,
                                           self.textbox_combat_list[iteration].text_list[pos + 1].rect.centery)

                   if event.key == pygame.K_b:
                       if iteration > 0 or variant != "combat":
                           return "false"
                       else:
                           print("Cannot go back")

                   # Space = select, returns action and target
                   if event.key == pygame.K_SPACE:
                       # If list is detected, further goes to select targets
                       if len(g_name[1][pos]) > 1 and type(g_name[1][pos]) is list:
                           if type(g_obj[1][pos][0]) is Spell and source.spell_list[pos].cost > source.energy:
                               print("Not enough mana.")
                           elif type(g_obj[1][pos][0]) is Item and player.item_inven[pos] <= 0:
                               print("None available.")
                           else:
                               output = self.selection(player, hero_list, enemy_list, variant, g_obj[1][pos],
                                                       g_name[1][pos], source, iteration + 1, pos_list)
                               if output != "false":
                                   new_pos_list = output[0]
                                   new_pos_list[iteration] = pos
                                   return new_pos_list, g_obj, g_name
                               else:
                                   empty_text_list = ["", "", "", "", "", "", "", ""]

                                   # Sets initial text and cursor positions
                                   self.textbox_combat_list[iteration].update(new_text_list)
                                   for box in range(iteration + 1, 3):
                                       self.textbox_combat_list[box].update(empty_text_list)
                                   self.pointer.update(
                                       self.textbox_combat_list[iteration].text_list[pos + 1].rect.x - pix_sz * .5,
                                       self.textbox_combat_list[iteration].text_list[pos + 1].rect.centery)
                       # Unselectable option
                       elif g_name[1][pos] == "None":
                           print("Option cannot be selected.")
                       # If no other options, returns values
                       else:
                           new_pos_list = pos_list
                           new_pos_list[iteration] = pos

                           print(new_pos_list)
                           return new_pos_list, g_obj, g_name

                   # Render game
                   self.screen.fill(WHITE)

                   if variant == "combat":
                       for textbox in self.textbox_combat_list:
                           textbox.textbox_blit()
                       for c in hero_list:
                           self.screen.blit(c.image, c.rect)
                       for e in enemy_list:
                           if not e.downed:
                                self.screen.blit(e.image, e.rect)
                   # Blits all textboxes to fill screen with menu
                   else:
                       for textbox in self.textbox_menu_list:
                           textbox.textbox_blit()
                   self.screen.blit(self.pointer.image, self.pointer.rect)

                   # Writes to main surface
                   pygame.display.flip()


class Platform(pygame.sprite.Sprite):
    def __init__(self, x, y, name, location):
        pygame.sprite.Sprite.__init__(self)
        self.x = x * pix_sz
        self.y = y * pix_sz
   
        self.variant = "block"
        self.color = BLACK
   
        # Platforms for town
        if location == "town":
            # Grass
            if name == " ":